                         Program Version 4.0.1.2 - RELEASE -
|  1> %pal nprocs 32 # Number of processors
|  2>
|  3> 	end
|  4>
|  5> ! RKS B3LYP 6-311G* Opt Freq TightOpt VeryTightSCF
|  6>
|  7> * xyz 0 1
|  8> C        1.5714036283     -0.3223184042     -0.2455268696
|  9> C        0.3999632193      0.3160601820     -0.1824650390
| 10> C       -0.8213344909     -0.3754737697      0.2756942033
| 11> C       -2.0004203229      0.2513039549      0.3015375354
| 12> H       -0.7696345038     -1.4124674803      0.5957601569
| 13> H       -2.0941003057      1.2857064673     -0.0151006020
| 14> H       -2.8868322891     -0.2756693923      0.6391430705
| 15> H        0.3533148024      1.3604997783     -0.4782062220
| 16> H        1.6577786346     -1.3673220793      0.0365025037
| 17> H        2.4570695043      0.2029931938     -0.5876345449
| 18> *
| 19>
| 20>
| 21>
| 22>                          ****END OF INPUT****
 Total Charge           Charge          ....    0
 Multiplicity           Mult            ....    1
 Number of Electrons    NEL             ....   30
FINAL SINGLE POINT ENERGY      -155.916414853066
FINAL SINGLE POINT ENERGY      -155.917855412905
FINAL SINGLE POINT ENERGY      -155.918354370904
FINAL SINGLE POINT ENERGY      -155.918368461730
FINAL SINGLE POINT ENERGY      -155.918373116548
FINAL SINGLE POINT ENERGY      -155.918373500890
FINAL SINGLE POINT ENERGY      -155.918373594572
                    ***********************HURRAY********************

CARTESIAN COORDINATES (ANGSTROEM)
---------------------------------
  C      1.591797   -0.326193   -0.241885
  C      0.403170    0.284265   -0.187835
  C     -0.829733   -0.351610    0.255751
  C     -2.018352    0.258860    0.309839
  H     -0.753371   -1.395209    0.558756
  H     -2.139411    1.298095    0.016473
  H     -2.910414   -0.257017    0.647675
  H      0.326802    1.327856   -0.490865
  H      1.712860   -1.365424    0.051498
  H      2.483861    0.189690   -0.579705

 Multiplicity           Mult            ....    1
 Number of Electrons    NEL             ....   30
 Basis Dimension        Dim             ....   90

ORBITAL ENERGIES
----------------

  NO   OCC          E(Eh)            E(eV)
   0   2.0000     -10.175326      -276.8847
   1   2.0000     -10.174988      -276.8755
   2   2.0000     -10.165335      -276.6128
   3   2.0000     -10.165326      -276.6126
   4   2.0000      -0.806711       -21.9517
   5   2.0000      -0.735126       -20.0038
   6   2.0000      -0.606377       -16.5004
   7   2.0000      -0.553512       -15.0618
   8   2.0000      -0.469225       -12.7683
   9   2.0000      -0.464556       -12.6412
  10   2.0000      -0.397221       -10.8089
  11   2.0000      -0.388264       -10.5652
  12   2.0000      -0.347614        -9.4591
  13   2.0000      -0.325778        -8.8649
  14   2.0000      -0.235247        -6.4014
  15   0.0000      -0.029612        -0.8058
  16   0.0000       0.064367         1.7515
  17   0.0000       0.067053         1.8246
  18   0.0000       0.071867         1.9556
  19   0.0000       0.074334         2.0227

MULLIKEN ATOMIC CHARGES
-----------------------
   0 C :   -0.427029
   1 C :   -0.162984
   2 C :   -0.162985
   3 C :   -0.427030
   4 H :    0.184852
   5 H :    0.199577
   6 H :    0.205585
   7 H :    0.184852
   8 H :    0.199576
   9 H :    0.205585
Sum of atomic charges:   -0.0000000

LOEWDIN ATOMIC CHARGES
----------------------
   0 C :   -0.204872
   1 C :   -0.115618
   2 C :   -0.115618
   3 C :   -0.204871
   4 H :    0.107553
   5 H :    0.105308
   6 H :    0.107629
   7 H :    0.107552
   8 H :    0.105308
   9 H :    0.107629

  Mayer bond orders larger than 0.1
B(  0-C ,  1-C ) :   1.8644 B(  0-C ,  3-C ) :   0.1292 B(  0-C ,  8-H ) :   0.9330
B(  0-C ,  9-H ) :   0.9364 B(  1-C ,  2-C ) :   1.0996 B(  1-C ,  7-H ) :   0.9342
B(  2-C ,  3-C ) :   1.8644 B(  2-C ,  4-H ) :   0.9342 B(  3-C ,  5-H ) :   0.9330
B(  3-C ,  6-H ) :   0.9364

FINAL SINGLE POINT ENERGY      -155.918373589100

DIPOLE MOMENT
-------------
                                X             Y             Z
Electronic contribution:     -0.00000      -0.00001      -0.00002
Nuclear contribution   :      0.00000       0.00001       0.00002
                        -----------------------------------------
Total Dipole Moment    :     -0.00000       0.00000       0.00000
                        -----------------------------------------
Magnitude (a.u.)       :      0.00000
Magnitude (Debye)      :      0.00000

VIBRATIONAL FREQUENCIES
-----------------------

   0:         0.00 cm**-1
   1:         0.00 cm**-1
   2:         0.00 cm**-1
   3:         0.00 cm**-1
   4:         0.00 cm**-1
   5:         0.00 cm**-1
   6:       174.13 cm**-1
   7:       299.39 cm**-1
   8:       519.74 cm**-1
   9:       535.69 cm**-1
  10:       778.89 cm**-1
  11:       901.86 cm**-1
  12:       922.84 cm**-1
  13:       925.03 cm**-1
  14:       994.10 cm**-1
  15:      1011.69 cm**-1
  16:      1054.21 cm**-1
  17:      1233.00 cm**-1
  18:      1321.26 cm**-1
  19:      1328.81 cm**-1
  20:      1423.01 cm**-1
  21:      1483.65 cm**-1
  22:      1657.48 cm**-1
  23:      1710.47 cm**-1
  24:      3121.74 cm**-1
  25:      3130.46 cm**-1
  26:      3134.37 cm**-1
  27:      3135.29 cm**-1
  28:      3215.90 cm**-1
  29:      3216.47 cm**-1

IR SPECTRUM
-----------

 Mode    freq (cm**-1)   T**2         TX         TY         TZ
-------------------------------------------------------------------
   6:       174.13    0.445065  (  0.116667   0.204725   0.624133)
   7:       299.39    2.611141  ( -1.574533  -0.111651   0.345719)
   8:       519.74    0.000002  ( -0.000301  -0.000399  -0.001332)
   9:       535.69   12.848992  ( -0.754836  -1.005641  -3.356769)
  10:       778.89    0.000000  (  0.000334  -0.000012  -0.000080)
  11:       901.86    0.000000  ( -0.000012  -0.000017  -0.000033)
  12:       922.84   93.559560  (  1.806078   2.862148   9.061222)
  13:       925.03    0.000001  (  0.000201   0.000326   0.000924)
  14:       994.10    0.000000  (  0.000107  -0.000055  -0.000021)
  15:      1011.69    2.520831  (  1.534215   0.159887  -0.376102)
  16:      1054.21   36.687134  ( -1.112117  -1.759741  -5.688026)
  17:      1233.00    0.000000  ( -0.000005  -0.000001  -0.000012)
  18:      1321.26    0.000000  (  0.000001   0.000017   0.000021)
  19:      1328.81    2.259135  ( -0.116210   1.442425  -0.406251)
  20:      1423.01    4.527836  ( -1.434508   1.559410  -0.195609)
  21:      1483.65    0.000000  ( -0.000022  -0.000030  -0.000088)
  22:      1657.48   17.781308  (  3.941085  -1.458531  -0.349064)
  23:      1710.47    0.000000  (  0.000024   0.000021   0.000066)
  24:      3121.74    0.000000  ( -0.000041  -0.000201  -0.000068)
  25:      3130.46   31.228950  (  2.877005  -4.714934   0.849229)
  26:      3134.37    0.000002  ( -0.000517  -0.001023   0.000447)
  27:      3135.29   16.453266  (  1.637500   3.440266  -1.391555)
  28:      3215.90    0.000006  (  0.001016   0.002040  -0.000820)
  29:      3216.47   41.200518  ( -2.717067  -5.389420   2.184541)

--------------------------
THERMOCHEMISTRY AT 298.15K
--------------------------

Temperature         ... 298.15 K
Pressure            ... 1.00 atm
Total Mass          ... 54.09 AMU

Throughout the following assumptions are being made:
  (1) The electronic state is orbitally nondegenerate
  (2) There are no thermally accessible electronically excited states
  (3) Hindered rotations indicated by low frequency modes are not
      treated as such but are treated as vibrations and this may
      cause some error
  (4) All equations used are the standard statistical mechanics
      equations for an ideal gas
  (5) All vibrations are strictly harmonic

freq.     174.13  E(vib)   ...       0.38
freq.     299.39  E(vib)   ...       0.26
freq.     519.74  E(vib)   ...       0.13
freq.     535.69  E(vib)   ...       0.12
freq.     778.89  E(vib)   ...       0.05
freq.     901.86  E(vib)   ...       0.03
freq.     922.84  E(vib)   ...       0.03
freq.     925.03  E(vib)   ...       0.03
freq.     994.10  E(vib)   ...       0.02
freq.    1011.69  E(vib)   ...       0.02
freq.    1054.21  E(vib)   ...       0.02
freq.    1233.00  E(vib)   ...       0.01
freq.    1321.26  E(vib)   ...       0.01
freq.    1328.81  E(vib)   ...       0.01
freq.    1423.01  E(vib)   ...       0.00
freq.    1483.65  E(vib)   ...       0.00
freq.    1657.48  E(vib)   ...       0.00
freq.    1710.47  E(vib)   ...       0.00
freq.    3121.74  E(vib)   ...       0.00
freq.    3130.46  E(vib)   ...       0.00
freq.    3134.37  E(vib)   ...       0.00
freq.    3135.29  E(vib)   ...       0.00
freq.    3215.90  E(vib)   ...       0.00
freq.    3216.47  E(vib)   ...       0.00

------------
INNER ENERGY
------------

The inner energy is: U= E(el) + E(ZPE) + E(vib) + E(rot) + E(trans)
    E(el)   - is the total energy from the electronic structure calculation
              = E(kin-el) + E(nuc-el) + E(el-el) + E(nuc-nuc)
    E(ZPE)  - the the zero temperature vibrational energy from the frequency calculation
    E(vib)  - the the finite temperature correction to E(ZPE) due to population
              of excited vibrational states
    E(rot)  - is the rotational thermal energy
    E(trans)- is the translational thermal energy

Summary of contributions to the inner energy U:
Electronic energy                ...   -155.91837359 Eh
Zero point energy                ...      0.08481499 Eh      53.22 kcal/mol
Thermal vibrational correction   ...      0.00182358 Eh       1.14 kcal/mol
Thermal rotational correction    ...      0.00141627 Eh       0.89 kcal/mol
Thermal translational correction ...      0.00141627 Eh       0.89 kcal/mol
-----------------------------------------------------------------------
Total thermal energy                   -155.82890248 Eh

Summary of corrections to the electronic energy:
(perhaps to be used in another calculation)
Total thermal correction                  0.00465612 Eh       2.92 kcal/mol
Non-thermal (ZPE) correction              0.08481499 Eh      53.22 kcal/mol
-----------------------------------------------------------------------
Total correction                          0.08947111 Eh      56.14 kcal/mol

--------
ENTHALPY
--------

The enthalpy is H = U + kB*T
                kB is Boltzmann's constant
Total free energy                 ...   -155.82890248 Eh
Thermal Enthalpy correction       ...      0.00094421 Eh       0.59 kcal/mol
-----------------------------------------------------------------------
Total Enthalpy                    ...   -155.82795827 Eh

Vibrational entropy computed according to the QRRHO of S. Grimme
Chem.Eur.J. 2012 18 9955

-------
ENTROPY
-------

The entropy contributions are T*S = T*(S(el)+S(vib)+S(rot)+S(trans)
     S(el)   - electronic entropy
     S(vib)  - vibrational entropy
     S(rot)  - rotational entropy
     S(trans)- translational entropy
The entropies will be listed as mutliplied by the temperature to get
units of energy

Electronic entropy                ...      0.00000000 Eh      0.00 kcal/mol
Vibrational entropy               ...      0.00284934 Eh      1.79 kcal/mol
Rotational entropy                ...      0.01016433 Eh      6.38 kcal/mol
Translational entropy             ...      0.01800097 Eh     11.30 kcal/mol
-----------------------------------------------------------------------
Final entropy term                ...      0.03101464 Eh     19.46 kcal/mol

CAUTION: The rotational entropy is not quite correctly treated here
         because it includes a symmetry number that is not yet correctly
         implemented in ORCA!
For a nonlinear molecule the correct rotational entropy is:
    S(rot) = R*(ln(qrot/sn)+1.5)
    R    = 8.31441 J/mol/K = 1.987191683e-3 kcal/mol/K
    qrot = 31692.9643473
    sn is the rotational symmetry number. We have assumed 3 here
       if it is different for your molecule then you should correct
       the printed rotational entropy by manually evaluating the equation
       as given above

For convenience we print out the resulting values for sn=1 - 12:
 sn= 1  qrot/sn=   31692.9643 T*S(rot)=     7.03 kcal/mol T*S(tot)=    20.11 kcal/mol
 sn= 2  qrot/sn=   15846.4822 T*S(rot)=     6.62 kcal/mol T*S(tot)=    19.70 kcal/mol
 sn= 3  qrot/sn=   10564.3214 T*S(rot)=     6.38 kcal/mol T*S(tot)=    19.46 kcal/mol
 sn= 4  qrot/sn=    7923.2411 T*S(rot)=     6.21 kcal/mol T*S(tot)=    19.29 kcal/mol
 sn= 5  qrot/sn=    6338.5929 T*S(rot)=     6.08 kcal/mol T*S(tot)=    19.16 kcal/mol
 sn= 6  qrot/sn=    5282.1607 T*S(rot)=     5.97 kcal/mol T*S(tot)=    19.05 kcal/mol
 sn= 7  qrot/sn=    4527.5663 T*S(rot)=     5.88 kcal/mol T*S(tot)=    18.96 kcal/mol
 sn= 8  qrot/sn=    3961.6205 T*S(rot)=     5.80 kcal/mol T*S(tot)=    18.88 kcal/mol
 sn= 9  qrot/sn=    3521.4405 T*S(rot)=     5.73 kcal/mol T*S(tot)=    18.81 kcal/mol
 sn=10  qrot/sn=    3169.2964 T*S(rot)=     5.66 kcal/mol T*S(tot)=    18.75 kcal/mol
 sn=11  qrot/sn=    2881.1786 T*S(rot)=     5.61 kcal/mol T*S(tot)=    18.69 kcal/mol
 sn=12  qrot/sn=    2641.0804 T*S(rot)=     5.56 kcal/mol T*S(tot)=    18.64 kcal/mol

-------------------
GIBBS FREE ENTHALPY
-------------------

The Gibbs free enthalpy is G = H - T*S

Total enthalpy                    ...   -155.82795827 Eh
Total entropy correction          ...     -0.03101464 Eh    -19.46 kcal/mol
-----------------------------------------------------------------------
Final Gibbs free enthalpy         ...   -155.85897291 Eh

For completeness - the Gibbs free enthalpy minus the electronic energy
G-E(el)                           ...      0.05940068 Eh     37.27 kcal/mol

                             ****ORCA TERMINATED NORMALLY****
TOTAL RUN TIME: 0 days 0 hours 2 minutes 41 seconds 868 msec
